Li                                      
    6.878398111183346     
     1.000000    0.000000    0.000000
     0.000000    1.000000    0.000000
     0.000000    0.000000    1.000000
 128
Direct
  0.968421  0.645292  0.955335
  0.069344  0.170822  0.138266
  0.579236  0.992397  0.250324
  0.454206  0.391610  0.317260
  0.147456  0.644205  0.423003
  0.895769  0.255800  0.931835
  0.445406  0.942998  0.581005
  0.390437  0.643873  0.910754
  0.188758  0.449379  0.884386
  0.024790  0.341453  0.865926
  0.027934  0.049276  0.313383
  0.712109  0.233671  0.844485
  0.483843  0.816431  0.783244
  0.941955  0.772419  0.563294
  0.919538  0.951046  0.944809
  0.435152  0.805631  0.343513
  0.312782  0.302950  0.896685
  0.219300  0.723894  0.749003
  0.032050  0.512419  0.438768
  0.728370  0.939004  0.703548
  0.550221  0.465899  0.146534
  0.529514  0.684685  0.083309
  0.555050  0.156590  0.427124
  0.798231  0.862055  0.283314
  0.773105  0.429412  0.339383
  0.982525  0.706784  0.173008
  0.217798  0.247355  0.381785
  0.386008  0.155579  0.494324
  0.714470  0.598668  0.201729
  0.335136  0.823937  0.635292
  0.320360  0.780420  0.012312
  0.440039  0.642235  0.562756
  0.404116  0.644285  0.188756
  0.430644  0.925827  0.047581
  0.891490  0.207906  0.417878
  0.800167  0.309344  0.060556
  0.847036  0.369464  0.486679
  0.003299  0.861193  0.788273
  0.593158  0.874307  0.028989
  0.144846  0.745008  0.276023
  0.201511  0.433427  0.587516
  0.236721  0.580463  0.004830
  0.874178  0.937181  0.587170
  0.651206  0.799816  0.512530
  0.601044  0.035877  0.649371
  0.378886  0.124510  0.686280
  0.383584  0.960966  0.233930
  0.086863  0.319481  0.597328
  0.307715  0.764518  0.463327
  0.573859  0.237297  0.732608
  0.900524  0.689859  0.763511
  0.173033  0.062795  0.970984
  0.056147  0.344157  0.369150
  0.107552  0.885124  0.970802
  0.796759  0.053686  0.812916
  0.578812  0.712616  0.883174
  0.656500  0.567789  0.879082
  0.595626  0.320597  0.036153
  0.512600  0.166191  0.266538
  0.524390  0.474557  0.789900
  0.887679  0.451544  0.185884
  0.923568  0.574728  0.306388
  0.157463  0.164613  0.543862
  0.521793  0.143189  0.062623
  0.885794  0.742674  0.382374
  0.364726  0.350744  0.447865
  0.731722  0.784812  0.781847
  0.410189  0.465730  0.016749
  0.034767  0.883911  0.382933
  0.916163  0.858527  0.128638
  0.870019  0.032711  0.210446
  0.187720  0.922785  0.470968
  0.945672  0.112599  0.018414
  0.307578  0.543687  0.479918
  0.128431  0.927086  0.154273
  0.735521  0.606333  0.431619
  0.659139  0.083640  0.932073
  0.210777  0.229724  0.732357
  0.499215  0.354405  0.901139
  0.138631  0.601163  0.158709
  0.850579  0.157369  0.624552
  0.327357  0.397211  0.706715
  0.547156  0.931443  0.440850
  0.125151  0.936589  0.650468
  0.708770  0.051912  0.119759
  0.710405  0.480294  0.037635
  0.805594  0.644972  0.583979
  0.096037  0.139549  0.832544
  0.943573  0.291775  0.708826
  0.778182  0.376989  0.759926
  0.524854  0.534168  0.456150
  0.632430  0.329951  0.311190
  0.157960  0.556804  0.711047
  0.287998  0.910428  0.889165
  0.302095  0.029178  0.410901
  0.114838  0.723846  0.578598
  0.521733  0.978709  0.851877
  0.332625  0.108041  0.020675
  0.362844  0.223104  0.187075
  0.975946  0.044889  0.728160
  0.761751  0.938513  0.445370
  0.261804  0.994099  0.736622
  0.419528  0.146133  0.863516
  0.134623  0.314396  0.057283
  0.005800  0.529991  0.760684
  0.681528  0.200331  0.571278
  0.809415  0.695288  0.052867
  0.470098  0.325154  0.604980
  0.690852  0.498041  0.668314
  0.743609  0.216482  0.209014
  0.129273  0.424803  0.227346
  0.770787  0.844031  0.956035
  0.756093  0.118706  0.395419
  0.645936  0.401531  0.518697
  0.577565  0.664709  0.330424
  0.850656  0.504806  0.878222
  0.296065  0.536531  0.290025
  0.275915  0.808147  0.188939
  0.610927  0.706808  0.650161
  0.951862  0.273351  0.231713
  0.131181  0.724503  0.921992
  0.303956  0.367954  0.143071
  0.652784  0.789032  0.203528
  0.939486  0.479509  0.593468
  0.003894  0.087050  0.503051
  0.208660  0.118139  0.239319
  0.390714  0.598291  0.729046
  0.013963  0.468603  0.035255

   64   64   64
           1
